TITLE     = "Versuch_09 | Versuch_09"
VARIABLES = "Time [s]"
"Kapazitiv 2 [mm]"
"Strom [A]"
"Kalibrator [Pa]"
"Cavity Pressure [Pa]"
ZONE T="Sensoren_03"
 STRANDID=0, SOLUTIONTIME=0
 I=40002, J=1, K=1, ZONETYPE=Ordered
 DATAPACKING=POINT
 DT=(DOUBLE DOUBLE DOUBLE SINGLE DOUBLE )
 PASSIVEVARLIST=[4]
 4.000000000E-001 3.267715653E+000 -5.704414834E+001 1.597369449E+004
 4.000100000E-001 3.270292381E+000 -5.703448548E+001 1.598384119E+004
 4.000200000E-001 3.270453427E+000 -5.704414834E+001 1.598933941E+004
 4.000300000E-001 3.269165062E+000 -5.704092738E+001 1.599063898E+004
 4.000400000E-001 3.269970290E+000 -5.703770643E+001 1.599503756E+004
 4.000500000E-001 3.274640611E+000 -5.703770643E+001 1.597784314E+004
 4.000600000E-001 3.268842971E+000 -5.703770643E+001 1.597009566E+004
 4.000700000E-001 3.270131336E+000 -5.703448548E+001 1.598329137E+004
 4.000800000E-001 3.272224928E+000 -5.704414834E+001 1.598069221E+004
 4.000900000E-001 3.269487153E+000 -5.703770643E+001 1.599628715E+004
 4.001000000E-001 3.268359835E+000 -5.704414834E+001 1.598429105E+004
 4.001100000E-001 3.268842971E+000 -5.704736929E+001 1.598983924E+004
 4.001200000E-001 3.270453427E+000 -5.702804358E+001 1.598379121E+004
 4.001300000E-001 3.269165062E+000 -5.704092738E+001 1.597019562E+004
 4.001400000E-001 3.270614472E+000 -5.703770643E+001 1.596774642E+004
 4.001500000E-001 3.269809245E+000 -5.704092738E+001 1.597929267E+004
 4.001600000E-001 3.269648199E+000 -5.704092738E+001 1.597914272E+004
 4.001700000E-001 3.270775518E+000 -5.703448548E+001 1.598948936E+004
 4.001800000E-001 3.273191201E+000 -5.704092738E+001 1.597719335E+004
 4.001900000E-001 3.271258654E+000 -5.704092738E+001 1.598369124E+004
 4.002000000E-001 3.271258654E+000 -5.704414834E+001 1.598828975E+004
 4.002100000E-001 3.271741791E+000 -5.704092738E+001 1.599258835E+004
 4.002200000E-001 3.269326108E+000 -5.704414834E+001 1.597809306E+004
 4.002300000E-001 3.266910425E+000 -5.703770643E+001 1.598094213E+004
 4.002400000E-001 3.271902837E+000 -5.704092738E+001 1.597749325E+004
 4.002500000E-001 3.268681926E+000 -5.704736929E+001 1.599478764E+004
 4.002600000E-001 3.272224928E+000 -5.704414834E+001 1.598059225E+004
 4.002700000E-001 3.266749379E+000 -5.704414834E+001 1.598594051E+004
 4.002800000E-001 3.271258654E+000 -5.705059024E+001 1.598694019E+004
 4.002900000E-001 3.269326108E+000 -5.704736929E+001 1.598524074E+004
 4.003000000E-001 3.271902837E+000 -5.704414834E+001 1.598504080E+004
 4.003100000E-001 3.270131336E+000 -5.704092738E+001 1.597289475E+004
 4.003200000E-001 3.271580745E+000 -5.704736929E+001 1.598059225E+004
 4.003300000E-001 3.269487153E+000 -5.704092738E+001 1.598973928E+004
 4.003400000E-001 3.272063882E+000 -5.704092738E+001 1.599433778E+004
 4.003500000E-001 3.271097609E+000 -5.704414834E+001 1.597884282E+004
 4.003600000E-001 3.270614472E+000 -5.703770643E+001 1.599293824E+004
 4.003700000E-001 3.270775518E+000 -5.704092738E+001 1.598888955E+004
 4.003800000E-001 3.272224928E+000 -5.704092738E+001 1.598604048E+004
 4.003900000E-001 3.267715653E+000 -5.704092738E+001 1.598714012E+004
 4.004000000E-001 3.273352246E+000 -5.705059024E+001 1.597359452E+004
 4.004100000E-001 3.266266243E+000 -5.704092738E+001 1.597744327E+004
 4.004200000E-001 3.272869110E+000 -5.704414834E+001 1.598194181E+004
 4.004300000E-001 3.269004017E+000 -5.704092738E+001 1.597934265E+004
 4.004400000E-001 3.270131336E+000 -5.704092738E+001 1.597389442E+004
 4.004500000E-001 3.270775518E+000 -5.705059024E+001 1.598094213E+004
 4.004600000E-001 3.274318520E+000 -5.704092738E+001 1.598379121E+004
 4.004700000E-001 3.268681926E+000 -5.704736929E+001 1.598259160E+004
 4.004800000E-001 3.269970290E+000 -5.704414834E+001 1.597839296E+004
 4.004900000E-001 3.268520880E+000 -5.704092738E+001 1.597314467E+004
 4.005000000E-001 3.271580745E+000 -5.705381119E+001 1.598499082E+004
 4.005100000E-001 3.268681926E+000 -5.703448548E+001 1.597184509E+004
 4.005200000E-001 3.269487153E+000 -5.704414834E+001 1.597894278E+004
 4.005300000E-001 3.270936563E+000 -5.705059024E+001 1.597899277E+004
 4.005400000E-001 3.270936563E+000 -5.704414834E+001 1.598519075E+004
 4.005500000E-001 3.267715653E+000 -5.704414834E+001 1.598274155E+004
 4.005600000E-001 3.274801656E+000 -5.704736929E+001 1.597834298E+004
 4.005700000E-001 3.268520880E+000 -5.704736929E+001 1.597499407E+004
 4.005800000E-001 3.268681926E+000 -5.704092738E+001 1.597944262E+004
 4.005900000E-001 3.271097609E+000 -5.704414834E+001 1.597109533E+004
 4.006000000E-001 3.271097609E+000 -5.704736929E+001 1.596369773E+004
 4.006100000E-001 3.268842971E+000 -5.704092738E+001 1.598489085E+004
 4.006200000E-001 3.270775518E+000 -5.703770643E+001 1.597894278E+004
 4.006300000E-001 3.269004017E+000 -5.705059024E+001 1.599173863E+004
 4.006400000E-001 3.269165062E+000 -5.704736929E+001 1.597929267E+004
 4.006500000E-001 3.272708064E+000 -5.705381119E+001 1.597559387E+004
 4.006600000E-001 3.271741791E+000 -5.703770643E+001 1.598239166E+004
 4.006700000E-001 3.270614472E+000 -5.705059024E+001 1.597449423E+004
 4.006800000E-001 3.269809245E+000 -5.704736929E+001 1.598139199E+004
 4.006900000E-001 3.269809245E+000 -5.704736929E+001 1.598744002E+004
 4.007000000E-001 3.273191201E+000 -5.705703214E+001 1.597674350E+004
 4.007100000E-001 3.271419700E+000 -5.705059024E+001 1.597594376E+004
 4.007200000E-001 3.271258654E+000 -5.705059024E+001 1.597609371E+004
 4.007300000E-001 3.272385973E+000 -5.705059024E+001 1.598139199E+004
 4.007400000E-001 3.267876698E+000 -5.704092738E+001 1.597424431E+004
 4.007500000E-001 3.269487153E+000 -5.704414834E+001 1.598004243E+004
 4.007600000E-001 3.271580745E+000 -5.704414834E+001 1.598054226E+004
 4.007700000E-001 3.270936563E+000 -5.704414834E+001 1.597274480E+004
 4.007800000E-001 3.270131336E+000 -5.704736929E+001 1.599293824E+004
 4.007900000E-001 3.270775518E+000 -5.704736929E+001 1.597394441E+004
 4.008000000E-001 3.267554607E+000 -5.705059024E+001 1.597824301E+004
 4.008100000E-001 3.269970290E+000 -5.705059024E+001 1.597649358E+004
 4.008200000E-001 3.270292381E+000 -5.704736929E+001 1.597789312E+004
 4.008300000E-001 3.270292381E+000 -5.704414834E+001 1.597819303E+004
 4.008400000E-001 3.267715653E+000 -5.704736929E+001 1.597519400E+004
 4.008500000E-001 3.270614472E+000 -5.704736929E+001 1.597349455E+004
 4.008600000E-001 3.270453427E+000 -5.705059024E+001 1.597839296E+004
 4.008700000E-001 3.269487153E+000 -5.704736929E+001 1.597494408E+004
 4.008800000E-001 3.271258654E+000 -5.704414834E+001 1.597494408E+004
 4.008900000E-001 3.270292381E+000 -5.705059024E+001 1.598209176E+004
 4.009000000E-001 3.267393561E+000 -5.705059024E+001 1.597584379E+004
 4.009100000E-001 3.269648199E+000 -5.704736929E+001 1.598514077E+004
 4.009200000E-001 3.272063882E+000 -5.704736929E+001 1.597939264E+004
 4.009300000E-001 3.268037744E+000 -5.704736929E+001 1.598634038E+004
 4.009400000E-001 3.267876698E+000 -5.704736929E+001 1.597004567E+004
 4.009500000E-001 3.269004017E+000 -5.705703214E+001 1.597744327E+004
 4.009600000E-001 3.270453427E+000 -5.704092738E+001 1.598549066E+004
 4.009700000E-001 3.272224928E+000 -5.705059024E+001 1.597364450E+004
 4.009800000E-001 3.272224928E+000 -5.705059024E+001 1.597574382E+004
 4.009900000E-001 3.267876698E+000 -5.705059024E+001 1.597659355E+004
 4.010000000E-001 3.271902837E+000 -5.704736929E+001 1.597384444E+004
 4.010100000E-001 3.270936563E+000 -5.704736929E+001 1.597554389E+004
 4.010200000E-001 3.268359835E+000 -5.705703214E+001 1.597864288E+004
 4.010300000E-001 3.267715653E+000 -5.705059024E+001 1.598314142E+004
 4.010400000E-001 3.269809245E+000 -5.705381119E+001 1.598444100E+004
 4.010500000E-001 3.267071470E+000 -5.706025309E+001 1.598704015E+004
 4.010600000E-001 3.267715653E+000 -5.704736929E+001 1.596949585E+004
 4.010700000E-001 3.269004017E+000 -5.705381119E+001 1.597469416E+004
 4.010800000E-001 3.269648199E+000 -5.704736929E+001 1.596674674E+004
 4.010900000E-001 3.267876698E+000 -5.704736929E+001 1.598129202E+004
 4.011000000E-001 3.272224928E+000 -5.705059024E+001 1.596924593E+004
 4.011100000E-001 3.269004017E+000 -5.705059024E+001 1.597574382E+004
 4.011200000E-001 3.273191201E+000 -5.705381119E+001 1.597424431E+004
 4.011300000E-001 3.270131336E+000 -5.704414834E+001 1.597484411E+004
 4.011400000E-001 3.271097609E+000 -5.705059024E+001 1.597549390E+004
 4.011500000E-001 3.269809245E+000 -5.704736929E+001 1.598304145E+004
 4.011600000E-001 3.271419700E+000 -5.704736929E+001 1.597924269E+004
 4.011700000E-001 3.270453427E+000 -5.705703214E+001 1.598339134E+004
 4.011800000E-001 3.272224928E+000 -5.705059024E+001 1.597889280E+004
 4.011900000E-001 3.266266243E+000 -5.704092738E+001 1.597304470E+004
 4.012000000E-001 3.271258654E+000 -5.705703214E+001 1.598699017E+004
 4.012100000E-001 3.269326108E+000 -5.705381119E+001 1.597529397E+004
 4.012200000E-001 3.271097609E+000 -5.705059024E+001 1.598274155E+004
 4.012300000E-001 3.269004017E+000 -5.705381119E+001 1.597209501E+004
 4.012400000E-001 3.271258654E+000 -5.705381119E+001 1.597289475E+004
 4.012500000E-001 3.266749379E+000 -5.705381119E+001 1.597764320E+004
 4.012600000E-001 3.268520880E+000 -5.704736929E+001 1.599078894E+004
 4.012700000E-001 3.269809245E+000 -5.705059024E+001 1.597894278E+004
 4.012800000E-001 3.272063882E+000 -5.704736929E+001 1.597369449E+004
 4.012900000E-001 3.270614472E+000 -5.704092738E+001 1.598219173E+004
 4.013000000E-001 3.271741791E+000 -5.705059024E+001 1.597719335E+004
 4.013100000E-001 3.267715653E+000 -5.704092738E+001 1.598469092E+004
 4.013200000E-001 3.271258654E+000 -5.705703214E+001 1.597159517E+004
 4.013300000E-001 3.270936563E+000 -5.704736929E+001 1.598224171E+004
 4.013400000E-001 3.270936563E+000 -5.705381119E+001 1.597999244E+004
 4.013500000E-001 3.267876698E+000 -5.705381119E+001 1.596629689E+004
 4.013600000E-001 3.271580745E+000 -5.705059024E+001 1.597924269E+004
 4.013700000E-001 3.271419700E+000 -5.705059024E+001 1.598858965E+004
 4.013800000E-001 3.271419700E+000 -5.705381119E+001 1.598159192E+004
 4.013900000E-001 3.270131336E+000 -5.706025309E+001 1.597799309E+004
 4.014000000E-001 3.269326108E+000 -5.705381119E+001 1.597599374E+004
 4.014100000E-001 3.271097609E+000 -5.705703214E+001 1.597719335E+004
 4.014200000E-001 3.269004017E+000 -5.704736929E+001 1.597744327E+004
 4.014300000E-001 3.271580745E+000 -5.705381119E+001 1.598564061E+004
 4.014400000E-001 3.270775518E+000 -5.704736929E+001 1.598474090E+004
 4.014500000E-001 3.270936563E+000 -5.704414834E+001 1.596754648E+004
 4.014600000E-001 3.270775518E+000 -5.705059024E+001 1.597234493E+004
 4.014700000E-001 3.270292381E+000 -5.705381119E+001 1.596729656E+004
 4.014800000E-001 3.269648199E+000 -5.705059024E+001 1.596359777E+004
 4.014900000E-001 3.269970290E+000 -5.704736929E+001 1.596939588E+004
 4.015000000E-001 3.270775518E+000 -5.705381119E+001 1.597489410E+004
 4.015100000E-001 3.270292381E+000 -5.705059024E+001 1.597434428E+004
 4.015200000E-001 3.270775518E+000 -5.705059024E+001 1.598209176E+004
 4.015300000E-001 3.269004017E+000 -5.705381119E+001 1.598279153E+004
 4.015400000E-001 3.270292381E+000 -5.705381119E+001 1.599143873E+004
 4.015500000E-001 3.269165062E+000 -5.704736929E+001 1.597254486E+004
 4.015600000E-001 3.270775518E+000 -5.705381119E+001 1.597219497E+004
 4.015700000E-001 3.272708064E+000 -5.705381119E+001 1.597719335E+004
 4.015800000E-001 3.270453427E+000 -5.705381119E+001 1.597664353E+004
 4.015900000E-001 3.269648199E+000 -5.704736929E+001 1.597179510E+004
 4.016000000E-001 3.270453427E+000 -5.705381119E+001 1.598264158E+004
 4.016100000E-001 3.272224928E+000 -5.705703214E+001 1.597799309E+004
 4.016200000E-001 3.271258654E+000 -5.705703214E+001 1.598898952E+004
 4.016300000E-001 3.269326108E+000 -5.705059024E+001 1.597549390E+004
 4.016400000E-001 3.269487153E+000 -5.705381119E+001 1.596939588E+004
 4.016500000E-001 3.272708064E+000 -5.704736929E+001 1.599303821E+004
 4.016600000E-001 3.270453427E+000 -5.705381119E+001 1.597829299E+004
 4.016700000E-001 3.269809245E+000 -5.704736929E+001 1.597634363E+004
 4.016800000E-001 3.272869110E+000 -5.704736929E+001 1.596564710E+004
 4.016900000E-001 3.269970290E+000 -5.705703214E+001 1.598274155E+004
 4.017000000E-001 3.271097609E+000 -5.704736929E+001 1.597674350E+004
 4.017100000E-001 3.271097609E+000 -5.705059024E+001 1.597129527E+004
 4.017200000E-001 3.270453427E+000 -5.705059024E+001 1.597669351E+004
 4.017300000E-001 3.271097609E+000 -5.706025309E+001 1.596899601E+004
 4.017400000E-001 3.272708064E+000 -5.704736929E+001 1.597939264E+004
 4.017500000E-001 3.271741791E+000 -5.705381119E+001 1.596839621E+004
 4.017600000E-001 3.271741791E+000 -5.705381119E+001 1.596969579E+004
 4.017700000E-001 3.268842971E+000 -5.705381119E+001 1.597514402E+004
 4.017800000E-001 3.270292381E+000 -5.705703214E+001 1.597534395E+004
 4.017900000E-001 3.271097609E+000 -5.705059024E+001 1.598339134E+004
 4.018000000E-001 3.272224928E+000 -5.705059024E+001 1.597729332E+004
 4.018100000E-001 3.270453427E+000 -5.704736929E+001 1.597634363E+004
 4.018200000E-001 3.270775518E+000 -5.705381119E+001 1.596639686E+004
 4.018300000E-001 3.272063882E+000 -5.704736929E+001 1.598709014E+004
 4.018400000E-001 3.269326108E+000 -5.705703214E+001 1.597439426E+004
 4.018500000E-001 3.271419700E+000 -5.705059024E+001 1.597664353E+004
 4.018600000E-001 3.271258654E+000 -5.705703214E+001 1.597899277E+004
 4.018700000E-001 3.266588334E+000 -5.705381119E+001 1.597139523E+004
 4.018800000E-001 3.271097609E+000 -5.705059024E+001 1.598104210E+004
 4.018900000E-001 3.270936563E+000 -5.705381119E+001 1.598389118E+004
 4.019000000E-001 3.271258654E+000 -5.704736929E+001 1.598709014E+004
 4.019100000E-001 3.272224928E+000 -5.705703214E+001 1.597244489E+004
 4.019200000E-001 3.273835383E+000 -5.705381119E+001 1.598134200E+004
 4.019300000E-001 3.268681926E+000 -5.704736929E+001 1.597744327E+004
 4.019400000E-001 3.271741791E+000 -5.704736929E+001 1.597554389E+004
 4.019500000E-001 3.271258654E+000 -5.706347405E+001 1.597624366E+004
 4.019600000E-001 3.269809245E+000 -5.705703214E+001 1.597099536E+004
 4.019700000E-001 3.271419700E+000 -5.705059024E+001 1.597139523E+004
 4.019800000E-001 3.271580745E+000 -5.705059024E+001 1.597869286E+004
 4.019900000E-001 3.272708064E+000 -5.705059024E+001 1.597409436E+004
 4.020000000E-001 3.268842971E+000 -5.705381119E+001 1.597354454E+004
 4.020100000E-001 3.269004017E+000 -5.704092738E+001 1.598334135E+004
 4.020200000E-001 3.270614472E+000 -5.705059024E+001 1.597389442E+004
 4.020300000E-001 3.267876698E+000 -5.705703214E+001 1.597524398E+004
 4.020400000E-001 3.271741791E+000 -5.705703214E+001 1.598479088E+004
 4.020500000E-001 3.270775518E+000 -5.705381119E+001 1.597854291E+004
 4.020600000E-001 3.270614472E+000 -5.705059024E+001 1.597959257E+004
 4.020700000E-001 3.271580745E+000 -5.706025309E+001 1.596499731E+004
 4.020800000E-001 3.272708064E+000 -5.705703214E+001 1.597384444E+004
 4.020900000E-001 3.268198789E+000 -5.705703214E+001 1.598569059E+004
 4.021000000E-001 3.271902837E+000 -5.706025309E+001 1.596604697E+004
 4.021100000E-001 3.268520880E+000 -5.705059024E+001 1.597959257E+004
 4.021200000E-001 3.271097609E+000 -5.705059024E+001 1.597349455E+004
 4.021300000E-001 3.265944152E+000 -5.705059024E+001 1.597559387E+004
 4.021400000E-001 3.270292381E+000 -5.705381119E+001 1.597434428E+004
 4.021500000E-001 3.268198789E+000 -5.705381119E+001 1.597519400E+004
 4.021600000E-001 3.269165062E+000 -5.705059024E+001 1.597324463E+004
 4.021700000E-001 3.270292381E+000 -5.705059024E+001 1.598004243E+004
 4.021800000E-001 3.270131336E+000 -5.705703214E+001 1.596409760E+004
 4.021900000E-001 3.266749379E+000 -5.705381119E+001 1.598069221E+004
 4.022000000E-001 3.271097609E+000 -5.705381119E+001 1.597484411E+004
 4.022100000E-001 3.269648199E+000 -5.704736929E+001 1.597389442E+004
 4.022200000E-001 3.271258654E+000 -5.704414834E+001 1.597184509E+004
 4.022300000E-001 3.268037744E+000 -5.705059024E+001 1.597814304E+004
 4.022400000E-001 3.271419700E+000 -5.705381119E+001 1.596469741E+004
 4.022500000E-001 3.269326108E+000 -5.705703214E+001 1.596459744E+004
 4.022600000E-001 3.270131336E+000 -5.705703214E+001 1.597629364E+004
 4.022700000E-001 3.271580745E+000 -5.705381119E+001 1.598099212E+004
 4.022800000E-001 3.271741791E+000 -5.706025309E+001 1.598144197E+004
 4.022900000E-001 3.269004017E+000 -5.705059024E+001 1.596969579E+004
 4.023000000E-001 3.270936563E+000 -5.705703214E+001 1.597079543E+004
 4.023100000E-001 3.270453427E+000 -5.705703214E+001 1.597954259E+004
 4.023200000E-001 3.270292381E+000 -5.706025309E+001 1.597929267E+004
 4.023300000E-001 3.271580745E+000 -5.705059024E+001 1.598374122E+004
 4.023400000E-001 3.269487153E+000 -5.705703214E+001 1.597989247E+004
 4.023500000E-001 3.269165062E+000 -5.704736929E+001 1.597799309E+004
 4.023600000E-001 3.269004017E+000 -5.705703214E+001 1.598704015E+004
 4.023700000E-001 3.272224928E+000 -5.705381119E+001 1.597964256E+004
 4.023800000E-001 3.269487153E+000 -5.705703214E+001 1.597504405E+004
 4.023900000E-001 3.271097609E+000 -5.706025309E+001 1.598059225E+004
 4.024000000E-001 3.271419700E+000 -5.706347405E+001 1.598014239E+004
 4.024100000E-001 3.270453427E+000 -5.705381119E+001 1.598334135E+004
 4.024200000E-001 3.269487153E+000 -5.706025309E+001 1.596439751E+004
 4.024300000E-001 3.271902837E+000 -5.706025309E+001 1.597579381E+004
 4.024400000E-001 3.270131336E+000 -5.706347405E+001 1.599018913E+004
 4.024500000E-001 3.271258654E+000 -5.705703214E+001 1.597914272E+004
 4.024600000E-001 3.270453427E+000 -5.705703214E+001 1.597674350E+004
 4.024700000E-001 3.271419700E+000 -5.706347405E+001 1.597674350E+004
 4.024800000E-001 3.269004017E+000 -5.706347405E+001 1.598084217E+004
 4.024900000E-001 3.272063882E+000 -5.706025309E+001 1.597009566E+004
 4.025000000E-001 3.272869110E+000 -5.706347405E+001 1.596339783E+004
 4.025100000E-001 3.269648199E+000 -5.705703214E+001 1.597439426E+004
 4.025200000E-001 3.270775518E+000 -5.706025309E+001 1.599138874E+004
 4.025300000E-001 3.269648199E+000 -5.706347405E+001 1.597809306E+004
 4.025400000E-001 3.268842971E+000 -5.706669500E+001 1.598699017E+004
 4.025500000E-001 3.271258654E+000 -5.705059024E+001 1.599038907E+004
 4.025600000E-001 3.270292381E+000 -5.706025309E+001 1.597424431E+004
 4.025700000E-001 3.270775518E+000 -5.705703214E+001 1.597309468E+004
 4.025800000E-001 3.267554607E+000 -5.705703214E+001 1.598054226E+004
 4.025900000E-001 3.269970290E+000 -5.705381119E+001 1.598264158E+004
 4.026000000E-001 3.271258654E+000 -5.706025309E+001 1.596804632E+004
 4.026100000E-001 3.268520880E+000 -5.705703214E+001 1.596784639E+004
 4.026200000E-001 3.271097609E+000 -5.706025309E+001 1.597454421E+004
 4.026300000E-001 3.271258654E+000 -5.706025309E+001 1.598424106E+004
 4.026400000E-001 3.266105197E+000 -5.706347405E+001 1.597899277E+004
 4.026500000E-001 3.268198789E+000 -5.705381119E+001 1.596279803E+004
 4.026600000E-001 3.268842971E+000 -5.706025309E+001 1.598374122E+004
 4.026700000E-001 3.271580745E+000 -5.706025309E+001 1.598519075E+004
 4.026800000E-001 3.271741791E+000 -5.705703214E+001 1.597069546E+004
 4.026900000E-001 3.272224928E+000 -5.705703214E+001 1.598114207E+004
 4.027000000E-001 3.272385973E+000 -5.705703214E+001 1.596749650E+004
 4.027100000E-001 3.269326108E+000 -5.705381119E+001 1.597504405E+004
 4.027200000E-001 3.273513292E+000 -5.705703214E+001 1.597434428E+004
 4.027300000E-001 3.270292381E+000 -5.705381119E+001 1.596629689E+004
 4.027400000E-001 3.270292381E+000 -5.706025309E+001 1.597284476E+004
 4.027500000E-001 3.272547019E+000 -5.705059024E+001 1.596934590E+004
 4.027600000E-001 3.271419700E+000 -5.706025309E+001 1.596899601E+004
 4.027700000E-001 3.269004017E+000 -5.706669500E+001 1.596184833E+004
 4.027800000E-001 3.270131336E+000 -5.705703214E+001 1.597949260E+004
 4.027900000E-001 3.269004017E+000 -5.705703214E+001 1.597014564E+004
 4.028000000E-001 3.269326108E+000 -5.705059024E+001 1.597809306E+004
 4.028100000E-001 3.270775518E+000 -5.705381119E+001 1.596874609E+004
 4.028200000E-001 3.272547019E+000 -5.705703214E+001 1.597804308E+004
 4.028300000E-001 3.268037744E+000 -5.705381119E+001 1.598134200E+004
 4.028400000E-001 3.270775518E+000 -5.705703214E+001 1.597984249E+004
 4.028500000E-001 3.271258654E+000 -5.705703214E+001 1.597959257E+004
 4.028600000E-001 3.272224928E+000 -5.705381119E+001 1.598254161E+004
 4.028700000E-001 3.266749379E+000 -5.706025309E+001 1.597509403E+004
 4.028800000E-001 3.271741791E+000 -5.705703214E+001 1.597919270E+004
 4.028900000E-001 3.269487153E+000 -5.706025309E+001 1.597494408E+004
 4.029000000E-001 3.271741791E+000 -5.705703214E+001 1.599328812E+004
 4.029100000E-001 3.269809245E+000 -5.705703214E+001 1.598494084E+004
 4.029200000E-001 3.273513292E+000 -5.706991595E+001 1.598064223E+004
 4.029300000E-001 3.270292381E+000 -5.706347405E+001 1.597319465E+004
 4.029400000E-001 3.271902837E+000 -5.706669500E+001 1.597474415E+004
 4.029500000E-001 3.269326108E+000 -5.706025309E+001 1.597394441E+004
 4.029600000E-001 3.270292381E+000 -5.706025309E+001 1.596549715E+004
 4.029700000E-001 3.269970290E+000 -5.705703214E+001 1.598259160E+004
 4.029800000E-001 3.271097609E+000 -5.706025309E+001 1.597274480E+004
 4.029900000E-001 3.270775518E+000 -5.706669500E+001 1.598694019E+004
 4.030000000E-001 3.273191201E+000 -5.706025309E+001 1.596799634E+004
 4.030100000E-001 3.270453427E+000 -5.706347405E+001 1.597354454E+004
 4.030200000E-001 3.270775518E+000 -5.705703214E+001 1.597544392E+004
 4.030300000E-001 3.269648199E+000 -5.706347405E+001 1.597489410E+004
 4.030400000E-001 3.272547019E+000 -5.706669500E+001 1.596529721E+004
 4.030500000E-001 3.270614472E+000 -5.706669500E+001 1.598079218E+004
 4.030600000E-001 3.271419700E+000 -5.706347405E+001 1.597009566E+004
 4.030700000E-001 3.269487153E+000 -5.706025309E+001 1.597119530E+004
 4.030800000E-001 3.272708064E+000 -5.706025309E+001 1.597754324E+004
 4.030900000E-001 3.269004017E+000 -5.705381119E+001 1.597849293E+004
 4.031000000E-001 3.272224928E+000 -5.705703214E+001 1.597054551E+004
 4.031100000E-001 3.267232516E+000 -5.706669500E+001 1.597559387E+004
 4.031200000E-001 3.270292381E+000 -5.706669500E+001 1.597614369E+004
 4.031300000E-001 3.268198789E+000 -5.706347405E+001 1.595580030E+004
 4.031400000E-001 3.271741791E+000 -5.706025309E+001 1.597819303E+004
 4.031500000E-001 3.268681926E+000 -5.706025309E+001 1.597844295E+004
 4.031600000E-001 3.270292381E+000 -5.706025309E+001 1.597859290E+004
 4.031700000E-001 3.271580745E+000 -5.706025309E+001 1.597414434E+004
 4.031800000E-001 3.273030155E+000 -5.705703214E+001 1.596934590E+004
 4.031900000E-001 3.272224928E+000 -5.706025309E+001 1.597359452E+004
 4.032000000E-001 3.270775518E+000 -5.705703214E+001 1.598714012E+004
 4.032100000E-001 3.270775518E+000 -5.706025309E+001 1.597724333E+004
 4.032200000E-001 3.272063882E+000 -5.706347405E+001 1.597824301E+004
 4.032300000E-001 3.270775518E+000 -5.705381119E+001 1.597994246E+004
 4.032400000E-001 3.272869110E+000 -5.706347405E+001 1.597414434E+004
 4.032500000E-001 3.273191201E+000 -5.706669500E+001 1.598194181E+004
 4.032600000E-001 3.269648199E+000 -5.705703214E+001 1.597424431E+004
 4.032700000E-001 3.270453427E+000 -5.706025309E+001 1.597824301E+004
 4.032800000E-001 3.269487153E+000 -5.706025309E+001 1.597969254E+004
 4.032900000E-001 3.269809245E+000 -5.705703214E+001 1.597669351E+004
 4.033000000E-001 3.272385973E+000 -5.708924166E+001 1.597649358E+004
 4.033100000E-001 3.270614472E+000 -5.705381119E+001 1.598139199E+004
 4.033200000E-001 3.269648199E+000 -5.705381119E+001 1.597864288E+004
 4.033300000E-001 3.272063882E+000 -5.705381119E+001 1.597149520E+004
 4.033400000E-001 3.273513292E+000 -5.706347405E+001 1.597579381E+004
 4.033500000E-001 3.268520880E+000 -5.705703214E+001 1.598813980E+004
 4.033600000E-001 3.270936563E+000 -5.706025309E+001 1.597454421E+004
 4.033700000E-001 3.271419700E+000 -5.706025309E+001 1.598114207E+004
 4.033800000E-001 3.268842971E+000 -5.706347405E+001 1.598069221E+004
 4.033900000E-001 3.270936563E+000 -5.705703214E+001 1.597499407E+004
 4.034000000E-001 3.270775518E+000 -5.705381119E+001 1.597759322E+004
 4.034100000E-001 3.274962702E+000 -5.705703214E+001 1.597604372E+004
 4.034200000E-001 3.266749379E+000 -5.706025309E+001 1.597829299E+004
 4.034300000E-001 3.273835383E+000 -5.705381119E+001 1.597129527E+004
 4.034400000E-001 3.268359835E+000 -5.705381119E+001 1.597529397E+004
 4.034500000E-001 3.270614472E+000 -5.705381119E+001 1.598863963E+004
 4.034600000E-001 3.270292381E+000 -5.705703214E+001 1.598064223E+004
 4.034700000E-001 3.272547019E+000 -5.705703214E+001 1.596134850E+004
 4.034800000E-001 3.271258654E+000 -5.706347405E+001 1.597499407E+004
 4.034900000E-001 3.270775518E+000 -5.705381119E+001 1.598419108E+004
 4.035000000E-001 3.272385973E+000 -5.705703214E+001 1.597969254E+004
 4.035100000E-001 3.273352246E+000 -5.705059024E+001 1.598134200E+004
 4.035200000E-001 3.270292381E+000 -5.705703214E+001 1.597804308E+004
 4.035300000E-001 3.269970290E+000 -5.706025309E+001 1.598564061E+004
 4.035400000E-001 3.274157474E+000 -5.705381119E+001 1.597714337E+004
 4.035500000E-001 3.269970290E+000 -5.705703214E+001 1.598913947E+004
 4.035600000E-001 3.271741791E+000 -5.706025309E+001 1.597604372E+004
 4.035700000E-001 3.268198789E+000 -5.705381119E+001 1.597879283E+004
 4.035800000E-001 3.267232516E+000 -5.705381119E+001 1.597969254E+004
 4.035900000E-001 3.271258654E+000 -5.705381119E+001 1.597794311E+004
 4.036000000E-001 3.271419700E+000 -5.705703214E+001 1.597434428E+004
 4.036100000E-001 3.269648199E+000 -5.705381119E+001 1.598409111E+004
 4.036200000E-001 3.272224928E+000 -5.705703214E+001 1.599068897E+004
 4.036300000E-001 3.269648199E+000 -5.705703214E+001 1.597464418E+004
 4.036400000E-001 3.272224928E+000 -5.704736929E+001 1.597709338E+004
 4.036500000E-001 3.270292381E+000 -5.704736929E+001 1.597899277E+004
 4.036600000E-001 3.272063882E+000 -5.705381119E+001 1.598239166E+004
 4.036700000E-001 3.268681926E+000 -5.705703214E+001 1.597669351E+004
 4.036800000E-001 3.269004017E+000 -5.706025309E+001 1.598304145E+004
 4.036900000E-001 3.269648199E+000 -5.705381119E+001 1.597869286E+004
 4.037000000E-001 3.270131336E+000 -5.705703214E+001 1.597944262E+004
 4.037100000E-001 3.268198789E+000 -5.705381119E+001 1.599213850E+004
 4.037200000E-001 3.271097609E+000 -5.705059024E+001 1.598014239E+004
 4.037300000E-001 3.269809245E+000 -5.706025309E+001 1.599063898E+004
 4.037400000E-001 3.268198789E+000 -5.705381119E+001 1.597524398E+004
 4.037500000E-001 3.270936563E+000 -5.704736929E+001 1.598094213E+004
 4.037600000E-001 3.271741791E+000 -5.705059024E+001 1.598464093E+004
 4.037700000E-001 3.267232516E+000 -5.706025309E+001 1.597459420E+004
 4.037800000E-001 3.273030155E+000 -5.705381119E+001 1.597109533E+004
 4.037900000E-001 3.268198789E+000 -5.705381119E+001 1.598918946E+004
 4.038000000E-001 3.269487153E+000 -5.705703214E+001 1.598594051E+004
 4.038100000E-001 3.269970290E+000 -5.705059024E+001 1.598049228E+004
 4.038200000E-001 3.271258654E+000 -5.705059024E+001 1.597439426E+004
 4.038300000E-001 3.268520880E+000 -5.705059024E+001 1.597454421E+004
 4.038400000E-001 3.269004017E+000 -5.704736929E+001 1.596919595E+004
 4.038500000E-001 3.271580745E+000 -5.705381119E+001 1.598229170E+004
 4.038600000E-001 3.272547019E+000 -5.705703214E+001 1.598724009E+004
 4.038700000E-001 3.267071470E+000 -5.704736929E+001 1.597609371E+004
 4.038800000E-001 3.270936563E+000 -5.705703214E+001 1.597439426E+004
 4.038900000E-001 3.269648199E+000 -5.704736929E+001 1.595625015E+004
 4.039000000E-001 3.268681926E+000 -5.705381119E+001 1.597629364E+004
 4.039100000E-001 3.269165062E+000 -5.705059024E+001 1.598174187E+004
 4.039200000E-001 3.272547019E+000 -5.704736929E+001 1.597054551E+004
 4.039300000E-001 3.270131336E+000 -5.705381119E+001 1.598114207E+004
 4.039400000E-001 3.270936563E+000 -5.705059024E+001 1.598429105E+004
 4.039500000E-001 3.271580745E+000 -5.705381119E+001 1.596544717E+004
 4.039600000E-001 3.268198789E+000 -5.706025309E+001 1.597829299E+004
 4.039700000E-001 3.270292381E+000 -5.705381119E+001 1.597844295E+004
 4.039800000E-001 3.270614472E+000 -5.705381119E+001 1.597664353E+004
 4.039900000E-001 3.269809245E+000 -5.705381119E+001 1.597639361E+004
 4.040000000E-001 3.270453427E+000 -5.704736929E+001 1.597869286E+004
 4.040100000E-001 3.271258654E+000 -5.705703214E+001 1.598379121E+004
 4.040200000E-001 3.269970290E+000 -5.705381119E+001 1.597644359E+004
 4.040300000E-001 3.267715653E+000 -5.704414834E+001 1.597669351E+004
 4.040400000E-001 3.269648199E+000 -5.705381119E+001 1.597604372E+004
 4.040500000E-001 3.269970290E+000 -5.705381119E+001 1.597564385E+004
 4.040600000E-001 3.269487153E+000 -5.705703214E+001 1.599168864E+004
 4.040700000E-001 3.270614472E+000 -5.705703214E+001 1.598099212E+004
 4.040800000E-001 3.267071470E+000 -5.705381119E+001 1.598459095E+004
 4.040900000E-001 3.267876698E+000 -5.704736929E+001 1.598414109E+004
 4.041000000E-001 3.271902837E+000 -5.705381119E+001 1.597769319E+004
 4.041100000E-001 3.271097609E+000 -5.705381119E+001 1.598084217E+004
 4.041200000E-001 3.268681926E+000 -5.705703214E+001 1.597384444E+004
 4.041300000E-001 3.273191201E+000 -5.705381119E+001 1.598509079E+004
 4.041400000E-001 3.272708064E+000 -5.705059024E+001 1.598239166E+004
 4.041500000E-001 3.270131336E+000 -5.705381119E+001 1.597624366E+004
 4.041600000E-001 3.265138924E+000 -5.704736929E+001 1.597009566E+004
 4.041700000E-001 3.270614472E+000 -5.704414834E+001 1.598019238E+004