TITLE     = "Versuch_10 | Versuch_10"
VARIABLES = "Time [s]"
"Kalibrator [Pa]"
"Kapazitiv 2 [mm]"
"Strom [A]"
"Cavity Pressure [Pa]"
ZONE T="Referenz_01"
 STRANDID=0, SOLUTIONTIME=0
 I=9, J=1, K=1, ZONETYPE=Ordered
 DATAPACKING=POINT
 DT=(DOUBLE DOUBLE SINGLE SINGLE DOUBLE )
 PASSIVEVARLIST=[3-4]
 4.000400450E-001 8.724320000E+003 -1.596000000E+003
 4.500450506E-001 8.724290000E+003 -1.596000000E+003
 5.000500563E-001 8.724320000E+003 -1.596000000E+003
 5.500550619E-001 8.724360000E+003 -1.596000000E+003
 6.000600675E-001 8.724420000E+003 -1.596000000E+003
 6.500650732E-001 8.724400000E+003 -1.596000000E+003
 7.000700788E-001 8.724460000E+003 -1.596000000E+003
 7.500750844E-001 8.724590000E+003 -1.596000000E+003
 8.000800900E-001 8.724630000E+003 -1.596000000E+003
ZONE T="Sensoren_01"
 STRANDID=0, SOLUTIONTIME=0
 I=40002, J=1, K=1, ZONETYPE=Ordered
 DATAPACKING=POINT
 DT=(DOUBLE SINGLE DOUBLE DOUBLE DOUBLE )
 PASSIVEVARLIST=[2]
 4.000000000E-001 3.253865736E+000 -6.202374165E+001 8.721949485E+003
 4.000100000E-001 3.251450053E+000 -6.202374165E+001 8.723998820E+003
 4.000200000E-001 3.254509918E+000 -6.202696260E+001 8.729646986E+003
 4.000300000E-001 3.251611098E+000 -6.203018355E+001 8.714951758E+003
 4.000400000E-001 3.255637237E+000 -6.202374165E+001 8.713352277E+003
 4.000500000E-001 3.253060508E+000 -6.202696260E+001 8.715101709E+003
 4.000600000E-001 3.253865736E+000 -6.203018355E+001 8.720200054E+003
 4.000700000E-001 3.255315146E+000 -6.202696260E+001 8.713752147E+003
 4.000800000E-001 3.253060508E+000 -6.203018355E+001 8.723299047E+003
 4.000900000E-001 3.251289007E+000 -6.203018355E+001 8.724848544E+003
 4.001000000E-001 3.254026781E+000 -6.202374165E+001 8.719100411E+003
 4.001100000E-001 3.252094235E+000 -6.202696260E+001 8.717500930E+003
 4.001200000E-001 3.249034370E+000 -6.203340451E+001 8.726997846E+003
 4.001300000E-001 3.253221554E+000 -6.202374165E+001 8.717300995E+003
 4.001400000E-001 3.252255280E+000 -6.202696260E+001 8.701156238E+003
 4.001500000E-001 3.252899463E+000 -6.202374165E+001 8.714501904E+003
 4.001600000E-001 3.254993055E+000 -6.201729974E+001 8.713402261E+003
 4.001700000E-001 3.253865736E+000 -6.202052069E+001 8.719950135E+003
 4.001800000E-001 3.253221554E+000 -6.202374165E+001 8.709303592E+003
 4.001900000E-001 3.253865736E+000 -6.202696260E+001 8.714152017E+003
 4.002000000E-001 3.252577372E+000 -6.203018355E+001 8.713952082E+003
 4.002100000E-001 3.254026781E+000 -6.202696260E+001 8.716201352E+003
 4.002200000E-001 3.252738417E+000 -6.202374165E+001 8.698307163E+003
 4.002300000E-001 3.254993055E+000 -6.202374165E+001 8.714601871E+003
 4.002400000E-001 3.252899463E+000 -6.203018355E+001 8.719550265E+003
 4.002500000E-001 3.251772144E+000 -6.202374165E+001 8.713152342E+003
 4.002600000E-001 3.254348873E+000 -6.202052069E+001 8.722899177E+003
 4.002700000E-001 3.253382599E+000 -6.202696260E+001 8.710253284E+003
 4.002800000E-001 3.252416326E+000 -6.202374165E+001 8.711302943E+003
 4.002900000E-001 3.254832009E+000 -6.203018355E+001 8.728997197E+003
 4.003000000E-001 3.250322734E+000 -6.202052069E+001 8.717700865E+003
 4.003100000E-001 3.252416326E+000 -6.202374165E+001 8.715351628E+003
 4.003200000E-001 3.252416326E+000 -6.202374165E+001 8.718300670E+003
 4.003300000E-001 3.254026781E+000 -6.202374165E+001 8.714451920E+003
 4.003400000E-001 3.250966916E+000 -6.202374165E+001 8.721649583E+003
 4.003500000E-001 3.256442465E+000 -6.202374165E+001 8.703905345E+003
 4.003600000E-001 3.254993055E+000 -6.202696260E+001 8.713552212E+003
 4.003700000E-001 3.252094235E+000 -6.202374165E+001 8.713052375E+003
 4.003800000E-001 3.252094235E+000 -6.202374165E+001 8.721249713E+003
 4.003900000E-001 3.255476191E+000 -6.202374165E+001 8.720749875E+003
 4.004000000E-001 3.251450053E+000 -6.202374165E+001 8.712752472E+003
 4.004100000E-001 3.251289007E+000 -6.202374165E+001 8.716451271E+003
 4.004200000E-001 3.249517506E+000 -6.202052069E+001 8.717251011E+003
 4.004300000E-001 3.252094235E+000 -6.202696260E+001 8.700556432E+003
 4.004400000E-001 3.250644825E+000 -6.202374165E+001 8.721149745E+003
 4.004500000E-001 3.254348873E+000 -6.202374165E+001 8.718950459E+003
 4.004600000E-001 3.252577372E+000 -6.202052069E+001 8.712952407E+003
 4.004700000E-001 3.254187827E+000 -6.203018355E+001 8.711752797E+003
 4.004800000E-001 3.253865736E+000 -6.202696260E+001 8.703505475E+003
 4.004900000E-001 3.253865736E+000 -6.202374165E+001 8.697007585E+003
 4.005000000E-001 3.252577372E+000 -6.202696260E+001 8.705054972E+003
 4.005100000E-001 3.252899463E+000 -6.202374165E+001 8.709903397E+003
 4.005200000E-001 3.251933189E+000 -6.202052069E+001 8.707454192E+003
 4.005300000E-001 3.255154100E+000 -6.202052069E+001 8.703255556E+003
 4.005400000E-001 3.251933189E+000 -6.202696260E+001 8.714401936E+003
 4.005500000E-001 3.256442465E+000 -6.203018355E+001 8.715451595E+003
 4.005600000E-001 3.252094235E+000 -6.202374165E+001 8.710953056E+003
 4.005700000E-001 3.251772144E+000 -6.202052069E+001 8.705504825E+003
 4.005800000E-001 3.252577372E+000 -6.202374165E+001 8.699956627E+003
 4.005900000E-001 3.254348873E+000 -6.202374165E+001 8.708953706E+003
 4.006000000E-001 3.251450053E+000 -6.202374165E+001 8.700506449E+003
 4.006100000E-001 3.253382599E+000 -6.202696260E+001 8.706904371E+003
 4.006200000E-001 3.252738417E+000 -6.202374165E+001 8.709603495E+003
 4.006300000E-001 3.250000643E+000 -6.202052069E+001 8.706754420E+003
 4.006400000E-001 3.252255280E+000 -6.202052069E+001 8.720000118E+003
 4.006500000E-001 3.253865736E+000 -6.202052069E+001 8.709703462E+003
 4.006600000E-001 3.253865736E+000 -6.202374165E+001 8.721099761E+003
 4.006700000E-001 3.254832009E+000 -6.202374165E+001 8.703555458E+003
 4.006800000E-001 3.253865736E+000 -6.203018355E+001 8.713802131E+003
 4.006900000E-001 3.252094235E+000 -6.202696260E+001 8.715501579E+003
 4.007000000E-001 3.252899463E+000 -6.202052069E+001 8.714451920E+003
 4.007100000E-001 3.251772144E+000 -6.202374165E+001 8.718550589E+003
 4.007200000E-001 3.254187827E+000 -6.202374165E+001 8.706954355E+003
 4.007300000E-001 3.250483780E+000 -6.202374165E+001 8.715551563E+003
 4.007400000E-001 3.252255280E+000 -6.201729974E+001 8.688960198E+003
 4.007500000E-001 3.251772144E+000 -6.202374165E+001 8.708253933E+003
 4.007600000E-001 3.251933189E+000 -6.201729974E+001 8.704055296E+003
 4.007700000E-001 3.252577372E+000 -6.202374165E+001 8.702255880E+003
 4.007800000E-001 3.252255280E+000 -6.202374165E+001 8.707654128E+003
 4.007900000E-001 3.251772144E+000 -6.201729974E+001 8.709503527E+003
 4.008000000E-001 3.257408738E+000 -6.202374165E+001 8.710803105E+003
 4.008100000E-001 3.253543645E+000 -6.202374165E+001 8.710453219E+003
 4.008200000E-001 3.254187827E+000 -6.202374165E+001 8.714551888E+003
 4.008300000E-001 3.250805871E+000 -6.202052069E+001 8.706354550E+003
 4.008400000E-001 3.257086647E+000 -6.202374165E+001 8.703005637E+003
 4.008500000E-001 3.253543645E+000 -6.202374165E+001 8.713502228E+003
 4.008600000E-001 3.251450053E+000 -6.202052069E+001 8.708953706E+003
 4.008700000E-001 3.253060508E+000 -6.202374165E+001 8.705904696E+003
 4.008800000E-001 3.255959328E+000 -6.202374165E+001 8.702655751E+003
 4.008900000E-001 3.250644825E+000 -6.201729974E+001 8.713802131E+003
 4.009000000E-001 3.258052920E+000 -6.201729974E+001 8.707054322E+003
 4.009100000E-001 3.250322734E+000 -6.202374165E+001 8.701856010E+003
 4.009200000E-001 3.253865736E+000 -6.203018355E+001 8.710653154E+003
 4.009300000E-001 3.255637237E+000 -6.202696260E+001 8.703005637E+003
 4.009400000E-001 3.251289007E+000 -6.202052069E+001 8.704555134E+003
 4.009500000E-001 3.251450053E+000 -6.202374165E+001 8.709953381E+003
 4.009600000E-001 3.252255280E+000 -6.201407878E+001 8.700656400E+003
 4.009700000E-001 3.252094235E+000 -6.202052069E+001 8.703255556E+003
 4.009800000E-001 3.254670964E+000 -6.202052069E+001 8.715001742E+003
 4.009900000E-001 3.252094235E+000 -6.201729974E+001 8.713502228E+003
 4.010000000E-001 3.254509918E+000 -6.201407878E+001 8.707504176E+003
 4.010100000E-001 3.254993055E+000 -6.201729974E+001 8.695857958E+003
 4.010200000E-001 3.251289007E+000 -6.202052069E+001 8.705004988E+003
 4.010300000E-001 3.254187827E+000 -6.201729974E+001 8.706604468E+003
 4.010400000E-001 3.252416326E+000 -6.201729974E+001 8.701356173E+003
 4.010500000E-001 3.252577372E+000 -6.202052069E+001 8.712352602E+003
 4.010600000E-001 3.252094235E+000 -6.202052069E+001 8.707554160E+003
 4.010700000E-001 3.254026781E+000 -6.201407878E+001 8.702455816E+003
 4.010800000E-001 3.250644825E+000 -6.202052069E+001 8.713902099E+003
 4.010900000E-001 3.256281419E+000 -6.201407878E+001 8.705554809E+003
 4.011000000E-001 3.251933189E+000 -6.201729974E+001 8.711552862E+003
 4.011100000E-001 3.253060508E+000 -6.201729974E+001 8.714102034E+003
 4.011200000E-001 3.252094235E+000 -6.201729974E+001 8.695258153E+003
 4.011300000E-001 3.252416326E+000 -6.201729974E+001 8.703155588E+003
 4.011400000E-001 3.253221554E+000 -6.201729974E+001 8.704955004E+003
 4.011500000E-001 3.253543645E+000 -6.202374165E+001 8.696207844E+003
 4.011600000E-001 3.250805871E+000 -6.201407878E+001 8.707854063E+003
 4.011700000E-001 3.255959328E+000 -6.202374165E+001 8.702205897E+003
 4.011800000E-001 3.250644825E+000 -6.202052069E+001 8.704705085E+003
 4.011900000E-001 3.253543645E+000 -6.201729974E+001 8.711003040E+003
 4.012000000E-001 3.252255280E+000 -6.201407878E+001 8.712302618E+003
 4.012100000E-001 3.250322734E+000 -6.201729974E+001 8.707804079E+003
 4.012200000E-001 3.251450053E+000 -6.202374165E+001 8.706554485E+003
 4.012300000E-001 3.253543645E+000 -6.201729974E+001 8.712752472E+003
 4.012400000E-001 3.251450053E+000 -6.202374165E+001 8.709253608E+003
 4.012500000E-001 3.252094235E+000 -6.201729974E+001 8.701006286E+003
 4.012600000E-001 3.250483780E+000 -6.202052069E+001 8.700956302E+003
 4.012700000E-001 3.253543645E+000 -6.201407878E+001 8.707004339E+003
 4.012800000E-001 3.251611098E+000 -6.201407878E+001 8.705004988E+003
 4.012900000E-001 3.255476191E+000 -6.201729974E+001 8.701706059E+003
 4.013000000E-001 3.253382599E+000 -6.202052069E+001 8.713902099E+003
 4.013100000E-001 3.255154100E+000 -6.202052069E+001 8.707554160E+003
 4.013200000E-001 3.250966916E+000 -6.202374165E+001 8.709853413E+003
 4.013300000E-001 3.254993055E+000 -6.201407878E+001 8.711852764E+003
 4.013400000E-001 3.253382599E+000 -6.201729974E+001 8.696707682E+003
 4.013500000E-001 3.254187827E+000 -6.202374165E+001 8.715751498E+003
 4.013600000E-001 3.249678552E+000 -6.201729974E+001 8.729147148E+003
 4.013700000E-001 3.251611098E+000 -6.202374165E+001 8.698607065E+003
 4.013800000E-001 3.253060508E+000 -6.202052069E+001 8.699606741E+003
 4.013900000E-001 3.254670964E+000 -6.202052069E+001 8.703505475E+003
 4.014000000E-001 3.250966916E+000 -6.201407878E+001 8.706404533E+003
 4.014100000E-001 3.254993055E+000 -6.202052069E+001 8.708004014E+003
 4.014200000E-001 3.248390187E+000 -6.201729974E+001 8.710903073E+003
 4.014300000E-001 3.255315146E+000 -6.202374165E+001 8.705404858E+003
 4.014400000E-001 3.252899463E+000 -6.202374165E+001 8.712502553E+003
 4.014500000E-001 3.253382599E+000 -6.201729974E+001 8.710653154E+003
 4.014600000E-001 3.249678552E+000 -6.202052069E+001 8.710103332E+003
 4.014700000E-001 3.251289007E+000 -6.202374165E+001 8.709503527E+003
 4.014800000E-001 3.255959328E+000 -6.201729974E+001 8.697357471E+003
 4.014900000E-001 3.254993055E+000 -6.201729974E+001 8.714751823E+003
 4.015000000E-001 3.250322734E+000 -6.202052069E+001 8.714052050E+003
 4.015100000E-001 3.253221554E+000 -6.202052069E+001 8.708453868E+003
 4.015200000E-001 3.254348873E+000 -6.202374165E+001 8.707954030E+003
 4.015300000E-001 3.249839597E+000 -6.202374165E+001 8.710953056E+003
 4.015400000E-001 3.255959328E+000 -6.202374165E+001 8.712402586E+003
 4.015500000E-001 3.251611098E+000 -6.202052069E+001 8.698956952E+003
 4.015600000E-001 3.253221554E+000 -6.201729974E+001 8.708553835E+003
 4.015700000E-001 3.250966916E+000 -6.202052069E+001 8.711402910E+003
 4.015800000E-001 3.252899463E+000 -6.202052069E+001 8.705254907E+003
 4.015900000E-001 3.251611098E+000 -6.202052069E+001 8.702055945E+003
 4.016000000E-001 3.251772144E+000 -6.202052069E+001 8.715451595E+003
 4.016100000E-001 3.252094235E+000 -6.202052069E+001 8.713302293E+003
 4.016200000E-001 3.252094235E+000 -6.201407878E+001 8.710453219E+003
 4.016300000E-001 3.252255280E+000 -6.201407878E+001 8.704205247E+003
 4.016400000E-001 3.255476191E+000 -6.202052069E+001 8.718200703E+003
 4.016500000E-001 3.251127962E+000 -6.202052069E+001 8.715501579E+003
 4.016600000E-001 3.253060508E+000 -6.202374165E+001 8.717600898E+003
 4.016700000E-001 3.256120374E+000 -6.202052069E+001 8.710303267E+003
 4.016800000E-001 3.253060508E+000 -6.201729974E+001 8.714052050E+003
 4.016900000E-001 3.252094235E+000 -6.201729974E+001 8.714052050E+003
 4.017000000E-001 3.252255280E+000 -6.202052069E+001 8.715051725E+003
 4.017100000E-001 3.253704690E+000 -6.202052069E+001 8.707104306E+003
 4.017200000E-001 3.250966916E+000 -6.202696260E+001 8.713852115E+003
 4.017300000E-001 3.253382599E+000 -6.202374165E+001 8.712152667E+003
 4.017400000E-001 3.252094235E+000 -6.202374165E+001 8.712652504E+003
 4.017500000E-001 3.252094235E+000 -6.202374165E+001 8.713502228E+003
 4.017600000E-001 3.254509918E+000 -6.202052069E+001 8.706054647E+003
 4.017700000E-001 3.252094235E+000 -6.202052069E+001 8.712202651E+003
 4.017800000E-001 3.253221554E+000 -6.202374165E+001 8.717051076E+003
 4.017900000E-001 3.254348873E+000 -6.202374165E+001 8.713552212E+003
 4.018000000E-001 3.253543645E+000 -6.202052069E+001 8.717001092E+003
 4.018100000E-001 3.254187827E+000 -6.202052069E+001 8.709053673E+003
 4.018200000E-001 3.252738417E+000 -6.201085783E+001 8.721349680E+003
 4.018300000E-001 3.251772144E+000 -6.202052069E+001 8.708203949E+003
 4.018400000E-001 3.254348873E+000 -6.202374165E+001 8.713602196E+003
 4.018500000E-001 3.250805871E+000 -6.202052069E+001 8.707154290E+003
 4.018600000E-001 3.253865736E+000 -6.202374165E+001 8.717600898E+003
 4.018700000E-001 3.251289007E+000 -6.202374165E+001 8.707254257E+003
 4.018800000E-001 3.250966916E+000 -6.202052069E+001 8.704105280E+003
 4.018900000E-001 3.256442465E+000 -6.202374165E+001 8.705304890E+003
 4.019000000E-001 3.254187827E+000 -6.202374165E+001 8.708053998E+003
 4.019100000E-001 3.251289007E+000 -6.202374165E+001 8.715051725E+003
 4.019200000E-001 3.252738417E+000 -6.202374165E+001 8.711902748E+003
 4.019300000E-001 3.254832009E+000 -6.202374165E+001 8.711103008E+003
 4.019400000E-001 3.252416326E+000 -6.202374165E+001 8.712152667E+003
 4.019500000E-001 3.254026781E+000 -6.201407878E+001 8.716151368E+003
 4.019600000E-001 3.251127962E+000 -6.202374165E+001 8.720300021E+003
 4.019700000E-001 3.254187827E+000 -6.202374165E+001 8.712802456E+003
 4.019800000E-001 3.250966916E+000 -6.202374165E+001 8.711852764E+003
 4.019900000E-001 3.252899463E+000 -6.202374165E+001 8.734895282E+003
 4.020000000E-001 3.251933189E+000 -6.202052069E+001 8.706504501E+003
 4.020100000E-001 3.251772144E+000 -6.202052069E+001 8.718500605E+003
 4.020200000E-001 3.251611098E+000 -6.203018355E+001 8.714451920E+003
 4.020300000E-001 3.253704690E+000 -6.202374165E+001 8.720300021E+003
 4.020400000E-001 3.253221554E+000 -6.201729974E+001 8.719300346E+003
 4.020500000E-001 3.253704690E+000 -6.202374165E+001 8.709153641E+003
 4.020600000E-001 3.251772144E+000 -6.202374165E+001 8.712452569E+003
 4.020700000E-001 3.253382599E+000 -6.202374165E+001 8.721699567E+003
 4.020800000E-001 3.251933189E+000 -6.202374165E+001 8.726747927E+003
 4.020900000E-001 3.254026781E+000 -6.202696260E+001 8.707854063E+003
 4.021000000E-001 3.251289007E+000 -6.202374165E+001 8.724248739E+003
 4.021100000E-001 3.253704690E+000 -6.202052069E+001 8.716501255E+003
 4.021200000E-001 3.250966916E+000 -6.202374165E+001 8.709403559E+003
 4.021300000E-001 3.258213966E+000 -6.202696260E+001 8.711802780E+003
 4.021400000E-001 3.251289007E+000 -6.201729974E+001 8.715351628E+003
 4.021500000E-001 3.253865736E+000 -6.202052069E+001 8.721699567E+003
 4.021600000E-001 3.250483780E+000 -6.202052069E+001 8.716851141E+003
 4.021700000E-001 3.252577372E+000 -6.202374165E+001 8.709503527E+003
 4.021800000E-001 3.252577372E+000 -6.201729974E+001 8.716751173E+003
 4.021900000E-001 3.254026781E+000 -6.202374165E+001 8.708103981E+003
 4.022000000E-001 3.252416326E+000 -6.202374165E+001 8.707554160E+003
 4.022100000E-001 3.252094235E+000 -6.202052069E+001 8.708753770E+003
 4.022200000E-001 3.251289007E+000 -6.202374165E+001 8.712602521E+003
 4.022300000E-001 3.250161688E+000 -6.202052069E+001 8.722549291E+003
 4.022400000E-001 3.251450053E+000 -6.202374165E+001 8.710703137E+003
 4.022500000E-001 3.254509918E+000 -6.202374165E+001 8.714551888E+003
 4.022600000E-001 3.252094235E+000 -6.201729974E+001 8.726048154E+003
 4.022700000E-001 3.253865736E+000 -6.202374165E+001 8.721199729E+003
 4.022800000E-001 3.253221554E+000 -6.202696260E+001 8.719800183E+003
 4.022900000E-001 3.252899463E+000 -6.202374165E+001 8.727347732E+003
 4.023000000E-001 3.253865736E+000 -6.202374165E+001 8.714301969E+003
 4.023100000E-001 3.253060508E+000 -6.202052069E+001 8.722849193E+003
 4.023200000E-001 3.251933189E+000 -6.202374165E+001 8.725048479E+003
 4.023300000E-001 3.250483780E+000 -6.202374165E+001 8.726547992E+003
 4.023400000E-001 3.253704690E+000 -6.202052069E+001 8.715851466E+003
 4.023500000E-001 3.251611098E+000 -6.202374165E+001 8.727147797E+003
 4.023600000E-001 3.251933189E+000 -6.202374165E+001 8.713802131E+003
 4.023700000E-001 3.251933189E+000 -6.202052069E+001 8.714851790E+003
 4.023800000E-001 3.254993055E+000 -6.202052069E+001 8.709203624E+003
 4.023900000E-001 3.250805871E+000 -6.202374165E+001 8.716801157E+003
 4.024000000E-001 3.251772144E+000 -6.203018355E+001 8.713802131E+003
 4.024100000E-001 3.254832009E+000 -6.202374165E+001 8.720200054E+003
 4.024200000E-001 3.252899463E+000 -6.202374165E+001 8.718100735E+003
 4.024300000E-001 3.252738417E+000 -6.201729974E+001 8.718650557E+003
 4.024400000E-001 3.254509918E+000 -6.202052069E+001 8.711552862E+003
 4.024500000E-001 3.253704690E+000 -6.202052069E+001 8.715401612E+003
 4.024600000E-001 3.250644825E+000 -6.203018355E+001 8.706654452E+003
 4.024700000E-001 3.253060508E+000 -6.202374165E+001 8.727197781E+003
 4.024800000E-001 3.253382599E+000 -6.202374165E+001 8.715101709E+003
 4.024900000E-001 3.253704690E+000 -6.202052069E+001 8.718400638E+003
 4.025000000E-001 3.253704690E+000 -6.203018355E+001 8.724548641E+003
 4.025100000E-001 3.251611098E+000 -6.202696260E+001 8.709703462E+003
 4.025200000E-001 3.250805871E+000 -6.202374165E+001 8.714851790E+003
 4.025300000E-001 3.253704690E+000 -6.202696260E+001 8.726098138E+003
 4.025400000E-001 3.251772144E+000 -6.202052069E+001 8.716651206E+003
 4.025500000E-001 3.249356461E+000 -6.202374165E+001 8.722699242E+003
 4.025600000E-001 3.252899463E+000 -6.203018355E+001 8.729846921E+003
 4.025700000E-001 3.251127962E+000 -6.202052069E+001 8.723548966E+003
 4.025800000E-001 3.251772144E+000 -6.203018355E+001 8.722999145E+003
 4.025900000E-001 3.254026781E+000 -6.202374165E+001 8.723099112E+003
 4.026000000E-001 3.254348873E+000 -6.202374165E+001 8.714301969E+003
 4.026100000E-001 3.255798282E+000 -6.202696260E+001 8.713802131E+003
 4.026200000E-001 3.253865736E+000 -6.202374165E+001 8.716551238E+003
 4.026300000E-001 3.253865736E+000 -6.202374165E+001 8.728347408E+003
 4.026400000E-001 3.250966916E+000 -6.202374165E+001 8.718000768E+003
 4.026500000E-001 3.252577372E+000 -6.202696260E+001 8.721849518E+003
 4.026600000E-001 3.252416326E+000 -6.203018355E+001 8.727197781E+003
 4.026700000E-001 3.253221554E+000 -6.202374165E+001 8.730696645E+003
 4.026800000E-001 3.250966916E+000 -6.202696260E+001 8.732446077E+003
 4.026900000E-001 3.253060508E+000 -6.201729974E+001 8.718050751E+003
 4.027000000E-001 3.252577372E+000 -6.203018355E+001 8.709853413E+003
 4.027100000E-001 3.251289007E+000 -6.202696260E+001 8.715201677E+003
 4.027200000E-001 3.253060508E+000 -6.202052069E+001 8.720499956E+003
 4.027300000E-001 3.256603510E+000 -6.202052069E+001 8.719950135E+003
 4.027400000E-001 3.253543645E+000 -6.202374165E+001 8.727697619E+003
 4.027500000E-001 3.250644825E+000 -6.203018355E+001 8.713952082E+003
 4.027600000E-001 3.250966916E+000 -6.202696260E+001 8.719900151E+003
 4.027700000E-001 3.253543645E+000 -6.202374165E+001 8.730346759E+003
 4.027800000E-001 3.251450053E+000 -6.202696260E+001 8.723548966E+003
 4.027900000E-001 3.255154100E+000 -6.202374165E+001 8.714701839E+003
 4.028000000E-001 3.250966916E+000 -6.202374165E+001 8.719300346E+003
 4.028100000E-001 3.252416326E+000 -6.202374165E+001 8.725848219E+003
 4.028200000E-001 3.251933189E+000 -6.202374165E+001 8.730146824E+003
 4.028300000E-001 3.254187827E+000 -6.203018355E+001 8.732695996E+003
 4.028400000E-001 3.250483780E+000 -6.203018355E+001 8.720649907E+003
 4.028500000E-001 3.254348873E+000 -6.202374165E+001 8.722249388E+003
 4.028600000E-001 3.250644825E+000 -6.203018355E+001 8.724948512E+003
 4.028700000E-001 3.252899463E+000 -6.202696260E+001 8.720399989E+003
 4.028800000E-001 3.253221554E+000 -6.202696260E+001 8.714501904E+003
 4.028900000E-001 3.253865736E+000 -6.202696260E+001 8.722399339E+003
 4.029000000E-001 3.253221554E+000 -6.202374165E+001 8.717051076E+003
 4.029100000E-001 3.255154100E+000 -6.202696260E+001 8.718200703E+003
 4.029200000E-001 3.254993055E+000 -6.202374165E+001 8.722449323E+003
 4.029300000E-001 3.253865736E+000 -6.202052069E+001 8.720849843E+003
 4.029400000E-001 3.252094235E+000 -6.202696260E+001 8.724348706E+003
 4.029500000E-001 3.255798282E+000 -6.203018355E+001 8.726697943E+003
 4.029600000E-001 3.254670964E+000 -6.203018355E+001 8.719950135E+003
 4.029700000E-001 3.250805871E+000 -6.202696260E+001 8.724698593E+003
 4.029800000E-001 3.253704690E+000 -6.202696260E+001 8.723748901E+003
 4.029900000E-001 3.252899463E+000 -6.202696260E+001 8.720999794E+003
 4.030000000E-001 3.248229142E+000 -6.202696260E+001 8.720999794E+003
 4.030100000E-001 3.253543645E+000 -6.203340451E+001 8.723948836E+003
 4.030200000E-001 3.251933189E+000 -6.202696260E+001 8.721749550E+003
 4.030300000E-001 3.252577372E+000 -6.202696260E+001 8.729996872E+003
 4.030400000E-001 3.255798282E+000 -6.202696260E+001 8.729746953E+003
 4.030500000E-001 3.252416326E+000 -6.202696260E+001 8.733845622E+003
 4.030600000E-001 3.251611098E+000 -6.202052069E+001 8.719550265E+003
 4.030700000E-001 3.252255280E+000 -6.202696260E+001 8.742742733E+003
 4.030800000E-001 3.254348873E+000 -6.202696260E+001 8.722049453E+003
 4.030900000E-001 3.254187827E+000 -6.202374165E+001 8.711602845E+003
 4.031000000E-001 3.249678552E+000 -6.203018355E+001 8.732995898E+003
 4.031100000E-001 3.253543645E+000 -6.202374165E+001 8.709103657E+003
 4.031200000E-001 3.253704690E+000 -6.202052069E+001 8.731446402E+003
 4.031300000E-001 3.252738417E+000 -6.202374165E+001 8.741143253E+003
 4.031400000E-001 3.253382599E+000 -6.202374165E+001 8.731146499E+003
 4.031500000E-001 3.251289007E+000 -6.202696260E+001 8.732995898E+003
 4.031600000E-001 3.251611098E+000 -6.202696260E+001 8.731746304E+003
 4.031700000E-001 3.251289007E+000 -6.203018355E+001 8.716951109E+003
 4.031800000E-001 3.254993055E+000 -6.202052069E+001 8.730346759E+003
 4.031900000E-001 3.252577372E+000 -6.203662546E+001 8.723548966E+003
 4.032000000E-001 3.255476191E+000 -6.202374165E+001 8.725798236E+003
 4.032100000E-001 3.252255280E+000 -6.203018355E+001 8.731296450E+003
 4.032200000E-001 3.253865736E+000 -6.202374165E+001 8.725948187E+003
 4.032300000E-001 3.253865736E+000 -6.202374165E+001 8.740893334E+003
 4.032400000E-001 3.254832009E+000 -6.202696260E+001 8.710753121E+003
 4.032500000E-001 3.251772144E+000 -6.202696260E+001 8.726897879E+003
 4.032600000E-001 3.252255280E+000 -6.202374165E+001 8.725898203E+003
 4.032700000E-001 3.251933189E+000 -6.203018355E+001 8.726148122E+003
 4.032800000E-001 3.253060508E+000 -6.202696260E+001 8.730646661E+003
 4.032900000E-001 3.248873324E+000 -6.202696260E+001 8.727647635E+003
 4.033000000E-001 3.253221554E+000 -6.203340451E+001 8.722349356E+003
 4.033100000E-001 3.253543645E+000 -6.202696260E+001 8.719200378E+003
 4.033200000E-001 3.254348873E+000 -6.202696260E+001 8.739243869E+003
 4.033300000E-001 3.251772144E+000 -6.203018355E+001 8.731846272E+003
 4.033400000E-001 3.249678552E+000 -6.202696260E+001 8.737494438E+003
 4.033500000E-001 3.252577372E+000 -6.203018355E+001 8.716701190E+003
 4.033600000E-001 3.250966916E+000 -6.203340451E+001 8.723998820E+003
 4.033700000E-001 3.254670964E+000 -6.202374165E+001 8.722499307E+003
 4.033800000E-001 3.253704690E+000 -6.202696260E+001 8.725048479E+003
 4.033900000E-001 3.252738417E+000 -6.203340451E+001 8.729846921E+003
 4.034000000E-001 3.252255280E+000 -6.202696260E+001 8.724998495E+003
 4.034100000E-001 3.254832009E+000 -6.202696260E+001 8.735395119E+003
 4.034200000E-001 3.252577372E+000 -6.203018355E+001 8.729047181E+003
 4.034300000E-001 3.253543645E+000 -6.203018355E+001 8.736694697E+003
 4.034400000E-001 3.253060508E+000 -6.203018355E+001 8.716751173E+003
 4.034500000E-001 3.253382599E+000 -6.203662546E+001 8.727447700E+003
 4.034600000E-001 3.254509918E+000 -6.203018355E+001 8.723998820E+003
 4.034700000E-001 3.254509918E+000 -6.203340451E+001 8.725148447E+003
 4.034800000E-001 3.250966916E+000 -6.203340451E+001 8.727347732E+003
 4.034900000E-001 3.253060508E+000 -6.203662546E+001 8.730646661E+003
 4.035000000E-001 3.253060508E+000 -6.203018355E+001 8.726947862E+003
 4.035100000E-001 3.252899463E+000 -6.203340451E+001 8.734145525E+003
 4.035200000E-001 3.254026781E+000 -6.202374165E+001 8.737044584E+003
 4.035300000E-001 3.254187827E+000 -6.203340451E+001 8.735794989E+003
 4.035400000E-001 3.252899463E+000 -6.202696260E+001 8.738294178E+003
 4.035500000E-001 3.252416326E+000 -6.203340451E+001 8.738993951E+003
 4.035600000E-001 3.252899463E+000 -6.203018355E+001 8.740193561E+003
 4.035700000E-001 3.253543645E+000 -6.203662546E+001 8.729397067E+003
 4.035800000E-001 3.250966916E+000 -6.203662546E+001 8.730996548E+003
 4.035900000E-001 3.253060508E+000 -6.203340451E+001 8.746991354E+003
 4.036000000E-001 3.253543645E+000 -6.203340451E+001 8.738943967E+003
 4.036100000E-001 3.255315146E+000 -6.202696260E+001 8.734795314E+003
 4.036200000E-001 3.251127962E+000 -6.203662546E+001 8.729497035E+003
 4.036300000E-001 3.254670964E+000 -6.203340451E+001 8.735295152E+003
 4.036400000E-001 3.248712279E+000 -6.203340451E+001 8.731346434E+003
 4.036500000E-001 3.255637237E+000 -6.203340451E+001 8.740143577E+003
 4.036600000E-001 3.251289007E+000 -6.203340451E+001 8.727847570E+003
 4.036700000E-001 3.253221554E+000 -6.203340451E+001 8.727347732E+003
 4.036800000E-001 3.250483780E+000 -6.203662546E+001 8.729746953E+003
 4.036900000E-001 3.256925601E+000 -6.203984642E+001 8.741443155E+003
 4.037000000E-001 3.253865736E+000 -6.203018355E+001 8.736444778E+003
 4.037100000E-001 3.252577372E+000 -6.203662546E+001 8.730096840E+003
 4.037200000E-001 3.251450053E+000 -6.203018355E+001 8.740493464E+003
 4.037300000E-001 3.254993055E+000 -6.203340451E+001 8.731246466E+003
 4.037400000E-001 3.249517506E+000 -6.203340451E+001 8.735994925E+003
 4.037500000E-001 3.253865736E+000 -6.203340451E+001 8.737644389E+003
 4.037600000E-001 3.249356461E+000 -6.203662546E+001 8.733895606E+003
 4.037700000E-001 3.249839597E+000 -6.203662546E+001 8.728997197E+003
 4.037800000E-001 3.251772144E+000 -6.202696260E+001 8.731146499E+003
 4.037900000E-001 3.255315146E+000 -6.203340451E+001 8.734995249E+003
 4.038000000E-001 3.249839597E+000 -6.203662546E+001 8.735295152E+003
 4.038100000E-001 3.252738417E+000 -6.203340451E+001 8.721299696E+003
 4.038200000E-001 3.250000643E+000 -6.202696260E+001 8.737994275E+003
 4.038300000E-001 3.252738417E+000 -6.203340451E+001 8.736944616E+003
 4.038400000E-001 3.250966916E+000 -6.203662546E+001 8.738244194E+003
 4.038500000E-001 3.255315146E+000 -6.203984642E+001 8.744242246E+003
 4.038600000E-001 3.252255280E+000 -6.203340451E+001 8.724548641E+003
 4.038700000E-001 3.253865736E+000 -6.202696260E+001 8.743942344E+003
 4.038800000E-001 3.254026781E+000 -6.203340451E+001 8.726098138E+003
 4.038900000E-001 3.253221554E+000 -6.203018355E+001 8.725498333E+003
 4.039000000E-001 3.251127962E+000 -6.203340451E+001 8.733795639E+003
 4.039100000E-001 3.252255280E+000 -6.203340451E+001 8.730096840E+003
 4.039200000E-001 3.250322734E+000 -6.203662546E+001 8.737744356E+003
 4.039300000E-001 3.249195415E+000 -6.203340451E+001 8.731446402E+003
 4.039400000E-001 3.253865736E+000 -6.203662546E+001 8.732346109E+003
 4.039500000E-001 3.254670964E+000 -6.203662546E+001 8.737844324E+003
 4.039600000E-001 3.250322734E+000 -6.203662546E+001 8.727497684E+003
 4.039700000E-001 3.251450053E+000 -6.204306737E+001 8.744242246E+003
 4.039800000E-001 3.252577372E+000 -6.203984642E+001 8.734645363E+003
 4.039900000E-001 3.252738417E+000 -6.203662546E+001 8.736444778E+003
 4.040000000E-001 3.253060508E+000 -6.203662546E+001 8.728597327E+003
 4.040100000E-001 3.253221554E+000 -6.203662546E+001 8.733195833E+003
 4.040200000E-001 3.256442465E+000 -6.203662546E+001 8.738993951E+003
 4.040300000E-001 3.254832009E+000 -6.203662546E+001 8.720200054E+003
 4.040400000E-001 3.251289007E+000 -6.203662546E+001 8.743692425E+003
 4.040500000E-001 3.254993055E+000 -6.203340451E+001 8.735994925E+003
 4.040600000E-001 3.251289007E+000 -6.203340451E+001 8.728997197E+003
 4.040700000E-001 3.252738417E+000 -6.203984642E+001 8.733695671E+003